 Gaussian 16, Revision C.01,
 Gaussian 16:  ES64L-G16RevC.01  3-Jul-2019

 ----------------------------------------------------------------------
 # opt cam-b3lyp/6-31+G(d,p) freq=raman int=(superfine,acc2e=12) scrf=(
 solvent=water)
 ----------------------------------------------------------------------

 --------
 K2Araman
 --------
 Symbolic Z-matrix:
 Charge = -1 Multiplicity = 1

 SCF Done:  E(RCAM-B3LYP) =  -702.126479395     A.U. after   16 cycles
 SCF Done:  E(RCAM-B3LYP) =  -702.135198929     A.U. after   14 cycles
 SCF Done:  E(RCAM-B3LYP) =  -702.136798403     A.U. after   14 cycles
 SCF Done:  E(RCAM-B3LYP) =  -702.136545620     A.U. after   13 cycles
 SCF Done:  E(RCAM-B3LYP) =  -702.136548005     A.U. after   14 cycles
 SCF Done:  E(RCAM-B3LYP) =  -702.136946583     A.U. after    8 cycles
 SCF Done:  E(RCAM-B3LYP) =  -702.136985162     A.U. after   11 cycles
 SCF Done:  E(RCAM-B3LYP) =  -702.136985639     A.U. after    9 cycles
 Optimization completed.
    -- Stationary point found.
 Normal termination of Gaussian 16 at Fri Oct 23 01:01:10 2020.

 ----------------------------------------------------------------------
 #N Geom=AllCheck Guess=TCheck SCRF=Check GenChk RCAM-B3LYP/6-31+G(d,p)
  Freq
 ----------------------------------------------------------------------

 Structure from the checkpoint file:  "K2A.chk"
 --------
 K2Araman
 --------
 Charge = -1 Multiplicity = 1

                         Standard orientation:
 ---------------------------------------------------------------------
 Center     Atomic      Atomic             Coordinates (Angstroms)
 Number     Number       Type             X           Y           Z
 ---------------------------------------------------------------------
      1          6           0       -0.097550    0.606835   -0.000022
      2          6           0       -0.131561   -0.807997    0.000007
      3          6           0       -1.377988   -1.464096    0.000013
      4          6           0       -2.527302   -0.707014   -0.000011
      5          6           0       -2.467606    0.707886   -0.000039
      6          6           0       -1.265192    1.382445   -0.000044
      7          6           0        2.024260   -0.132232    0.000000
      8          6           0        1.230985   -1.252982    0.000022
      9          1           0       -1.451484   -2.546862    0.000033
     10          1           0       -1.232505    2.467602   -0.000065
     11          1           0        1.586018   -2.273125    0.000043
     12          8           0       -3.755371   -1.320397   -0.000007
     13          1           0       -4.441681   -0.636856   -0.000033
     14          8           0       -3.696827    1.321428   -0.000060
     15          1           0       -3.609623    2.283209   -0.000098
     16          7           0        1.219287    0.986530   -0.000020
     17          1           0        1.594720    1.923118   -0.000040
     18          6           0        3.517639    0.032420   -0.000007
     19          8           0        3.935275    1.223927    0.000032
     20          8           0        4.215105   -1.014256    0.000134
 ---------------------------------------------------------------------

 SCF Done:  E(RCAM-B3LYP) =  -702.136985639     A.U. after    1 cycles

 The electronic state is 1-A.
 Alpha  occ. eigenvalues --  -19.27175 -19.25757 -19.16806 -19.16676 -14.44466
 Alpha  occ. eigenvalues --  -10.35329 -10.33200 -10.32295 -10.29695 -10.28584
 Alpha  occ. eigenvalues --  -10.27169 -10.26479 -10.26252 -10.24888  -1.16455
 Alpha  occ. eigenvalues --   -1.13239  -1.10820  -1.06010  -1.01423  -0.92836
 Alpha  occ. eigenvalues --   -0.86460  -0.82103  -0.80308  -0.73062  -0.68794
 Alpha  occ. eigenvalues --   -0.67022  -0.63682  -0.62103  -0.59858  -0.55864
 Alpha  occ. eigenvalues --   -0.54203  -0.51755  -0.51262  -0.50597  -0.49431
 Alpha  occ. eigenvalues --   -0.49106  -0.47793  -0.46313  -0.45364  -0.45356
 Alpha  occ. eigenvalues --   -0.44697  -0.44538  -0.40997  -0.36773  -0.33815
 Alpha  occ. eigenvalues --   -0.31408  -0.31339  -0.30129  -0.25946  -0.25194
 Alpha virt. eigenvalues --    0.01384   0.02801   0.04041   0.04762   0.05508
 Alpha virt. eigenvalues --    0.06220   0.06314   0.07542   0.07645   0.08742
 Alpha virt. eigenvalues --    0.09254   0.09370   0.09638   0.10536   0.10715

 Mulliken charges:
               1
     1  C   -0.578670
     2  C    0.938975
     3  C   -0.508153
     4  C    0.143419
     5  C    0.290564
     6  C   -0.832761
     7  C   -0.404481
     8  C    0.513826
     9  H    0.154105
    10  H    0.158171
    11  H    0.149260
    12  O   -0.602884
    13  H    0.405386
    14  O   -0.651597
    15  H    0.414008
    16  N   -0.398046
    17  H    0.329305
    18  C    0.979626
    19  O   -0.743018
    20  O   -0.757035
 Sum of Mulliken charges =  -1.00000

 Dipole moment (field-independent basis, Debye):
    X=            -18.8801    Y=              4.8282    Z=             -0.0007  Tot=             19.4877
 Quadrupole moment (field-independent basis, Debye-Ang):
   XX=           -171.1058   YY=            -79.7618   ZZ=            -86.2739
   XY=            -11.2914   XZ=             -0.0019   YZ=             -0.0002

  Exact polarizability:     265.549      -0.487     187.896       0.002      -0.002      95.925
 Approx polarizability:     213.696       0.734     177.113       0.002      -0.002      90.016

                      1                      2                      3
                      A                      A                      A
 Frequencies --     70.3223                77.9860               132.4876
 Red. masses --     12.0519                10.6159                 9.7306
 Frc consts  --      0.0351                 0.0380                 0.1006
 IR Inten    --      1.5428                 5.7147                 9.8359
 Raman Activ --      0.6399                 0.7243                 0.8576

                      4                      5                      6
                      A                      A                      A
 Frequencies --    156.8735               218.8733               230.7886
 Red. masses --      6.6810                 6.6760                 1.1326
 Frc consts  --      0.0969                 0.1884                 0.0355
 IR Inten    --     10.6047                19.0350               291.6099
 Raman Activ --      3.1914                 0.9253                 1.6404

                      7                      8                      9
                      A                      A                      A
 Frequencies --    312.5686               323.3737               330.3219
 Red. masses --      6.9858                 6.3407                 7.9069
 Frc consts  --      0.4021                 0.3907                 0.5083
 IR Inten    --     13.0953                 3.9473                 9.9511
 Raman Activ --      3.1511                 1.9424                 5.1819

                     10                     11                     12
                      A                      A                      A
 Frequencies --    340.6714               370.6751               394.3339
 Red. masses --      4.7561                 1.3392                 3.9978
 Frc consts  --      0.3252                 0.1084                 0.3663
 IR Inten    --      1.9742                61.9399                 1.0296
 Raman Activ --      0.9492                 1.1338                 3.0267

                     13                     14                     15
                      A                      A                      A
 Frequencies --    437.6408               446.1211               508.6247
 Red. masses --      2.7030                 6.4145                 1.2652
 Frc consts  --      0.3050                 0.7522                 0.1928
 IR Inten    --      0.2484                 4.7752               132.3874
 Raman Activ --      4.8311                11.3780                 0.3796

                     16                     17                     18
                      A                      A                      A
 Frequencies --    545.6485               547.8399               630.4819
 Red. masses --      6.6055                 7.3901                 3.3085
 Frc consts  --      1.1587                 1.3068                 0.7749
 IR Inten    --     18.9713                51.4893                 9.5038
 Raman Activ --      2.3667                 3.9589                 3.4742

                     19                     20                     21
                      A                      A                      A
 Frequencies --    652.9315               694.0069               737.2443
 Red. masses --      4.2423                 5.6491                 3.0066
 Frc consts  --      1.0656                 1.6031                 0.9628
 IR Inten    --     56.5332                 0.2393                15.5111
 Raman Activ --     10.7311                 1.0268                 1.2670

                     22                     23                     24
                      A                      A                      A
 Frequencies --    765.1319               790.9187               792.2610
 Red. masses --      8.2864                 2.7478                 6.7659
 Frc consts  --      2.8582                 1.0127                 2.5021
 IR Inten    --     68.0371                80.2280                 3.1650
 Raman Activ --     64.9341                 1.4327                16.9576

                     25                     26                     27
                      A                      A                      A
 Frequencies --    801.5982               846.7652               854.2829
 Red. masses --      7.6954                 2.4452                 1.5139
 Frc consts  --      2.9134                 1.0330                 0.6510
 IR Inten    --      5.3495                 1.0033                27.1940
 Raman Activ --     33.4391                 9.1793                 4.3838

                     28                     29                     30
                      A                      A                      A
 Frequencies --    891.6787               897.8488              1006.6153
 Red. masses --      1.4918                 2.4709                 7.7251
 Frc consts  --      0.6988                 1.1736                 4.6119
 IR Inten    --     70.7466                54.8322                35.0742
 Raman Activ --      2.9820                 3.0287                71.8121

                     31                     32                     33
                      A                      A                      A
 Frequencies --   1112.3035              1149.7272              1170.0374
 Red. masses --      1.5483                 2.1451                 1.3860
 Frc consts  --      1.1286                 1.6706                 1.1179
 IR Inten    --    196.9933               135.1146               169.4237
 Raman Activ --     80.3432                 7.7301                22.2084

                     34                     35                     36
                      A                      A                      A
 Frequencies --   1196.0569              1233.3222              1253.3583
 Red. masses --      1.5491                 1.9377                 1.8569
 Frc consts  --      1.3057                 1.7366                 1.7186
 IR Inten    --    209.2408               171.2870                22.8155
 Raman Activ --     16.0551                19.8957                32.5459

                     37                     38                     39
                      A                      A                      A
 Frequencies --   1266.7603              1345.5660              1365.2296
 Red. masses --      2.6799                 3.2481                 2.7713
 Frc consts  --      2.5337                 3.4649                 3.0433
 IR Inten    --     17.1981              1089.0821                89.6141
 Raman Activ --      6.1450               411.9937                 3.1338

                     40                     41                     42
                      A                      A                      A
 Frequencies --   1419.9789              1431.1367              1462.1926
 Red. masses --      4.6721                 8.9024                 4.4864
 Frc consts  --      5.5505                10.7428                 5.6515
 IR Inten    --     77.6589               406.5558               113.6090
 Raman Activ --    605.7891               206.6330               250.9913

                     43                     44                     45
                      A                      A                      A
 Frequencies --   1535.5754              1561.1366              1605.7098
 Red. masses --      4.3085                 5.4629                 6.5643
 Frc consts  --      5.9858                 7.8443                 9.9718
 IR Inten    --    130.1343                36.0179               387.8538
 Raman Activ --    278.2887               121.9786              1255.1351

                     46                     47                     48
                      A                      A                      A
 Frequencies --   1638.4946              1670.1847              1724.7672
 Red. masses --     12.4341                 6.8492                 7.6643
 Frc consts  --     19.6678                11.2570                13.4333
 IR Inten    --    979.6931                15.4757                20.1619
 Raman Activ --     61.0096                86.0253               153.0091

                     49                     50                     51
                      A                      A                      A
 Frequencies --   3220.2508              3222.3516              3284.9004
 Red. masses --      1.0926                 1.0924                 1.0966
 Frc consts  --      6.6754                 6.6830                 6.9717
 IR Inten    --      9.3010                 9.7391                 3.3408
 Raman Activ --     78.1727               434.9197               219.5483

                     52                     53                     54
                      A                      A                      A
 Frequencies --   3680.6078              3807.9753              3864.1411
 Red. masses --      1.0808                 1.0657                 1.0667
 Frc consts  --      8.6264                 9.1052                 9.3839
 IR Inten    --    209.2165               224.8232               180.4738
 Raman Activ --    199.4867               188.4563               231.8636

 - Thermochemistry -
 -------------------
 Temperature   298.150 Kelvin.  Pressure   1.00000 Atm.
 Atom     1 has atomic number  6 and mass  12.00000

 Molecular mass:   192.02968 amu.
 Principal axes and moments of inertia in atomic units:
                           1         2         3
     Eigenvalues --   818.072355164.629605982.70195
           X            0.99999  -0.00436  -0.00001
           Y            0.00436   0.99999   0.00002
           Z            0.00001  -0.00002   1.00000
 This molecule is an asymmetric top.
 Rotational symmetry number  1.
 Warning -- assumption of classical behavior for rotation
           may cause significant error
 Rotational temperatures (Kelvin)      0.10588     0.01677     0.01448
 Rotational constants (GHZ):           2.20609     0.34944     0.30166
 Zero-point vibrational energy     371013.9 (Joules/Mol)
                                   88.67445 (Kcal/Mol)
 Warning -- explicit consideration of  17 degrees of freedom as
           vibrations may cause significant error
 Vibrational temperatures:    101.18   112.20   190.62   225.71   314.91
          (Kelvin)            332.05   449.72   465.26   475.26   490.15
                              533.32   567.36   629.67   641.87   731.80
                              785.07   788.22   907.12   939.42   998.52
                             1060.73  1100.85  1137.96  1139.89  1153.32
                             1218.31  1229.12  1282.93  1291.80  1448.29
                             1600.36  1654.20  1683.42  1720.86  1774.48
                             1803.30  1822.59  1935.97  1964.26  2043.03
                             2059.09  2103.77  2209.35  2246.13  2310.26
                             2357.43  2403.02  2481.56  4633.22  4636.25
                             4726.24  5295.57  5478.83  5559.64

 Zero-point correction=                           0.141312 (Hartree/Particle)
 Thermal correction to Energy=                    0.152687
 Thermal correction to Enthalpy=                  0.153631
 Thermal correction to Gibbs Free Energy=         0.103930
 Sum of electronic and zero-point Energies=           -701.995674
 Sum of electronic and thermal Energies=              -701.984299
 Sum of electronic and thermal Enthalpies=            -701.983354
 Sum of electronic and thermal Free Energies=         -702.033056

                     E (Thermal)             CV                S
                      KCal/Mol        Cal/Mol-Kelvin    Cal/Mol-Kelvin
 Total                   95.813             44.093            104.605
 Electronic               0.000              0.000              0.000
 Translational            0.889              2.981             41.663
 Rotational               0.889              2.981             31.603
 Vibrational             94.035             38.131             31.339
 Vibration     1          0.598              1.968              4.144
 Vibration     2          0.599              1.964              3.941
 Vibration     3          0.613              1.921              2.910
 Vibration     4          0.621              1.895              2.587
 Vibration     5          0.647              1.812              1.968
 Vibration     6          0.652              1.794              1.873
 Vibration     7          0.701              1.650              1.349
 Vibration     8          0.708              1.629              1.293
 Vibration     9          0.713              1.615              1.259
 Vibration    10          0.720              1.594              1.209
 Vibration    11          0.743              1.532              1.077
 Vibration    12          0.761              1.482              0.984
 Vibration    13          0.798              1.388              0.834
 Vibration    14          0.805              1.369              0.808
 Vibration    15          0.864              1.231              0.637
 Vibration    16          0.901              1.149              0.553
 Vibration    17          0.903              1.144              0.549

 Optimization completed.
    -- Stationary point found.
 Normal termination of Gaussian 16 at Fri Oct 23 01:21:40 2020.
