 Gaussian 16, Revision C.01,
 Gaussian 16:  ES64L-G16RevC.01  3-Jul-2019

 ----------------------------------------------------------------------
 # td(nstates=5) opt cam-b3lyp/6-31+G(d,p) freq=raman int=(ultrafine,ac
 c2e=11) scrf=(solvent=water) maxdisk=1TB nosymm
 ----------------------------------------------------------------------

 ------
 K2Aexc
 ------
 Symbolic Z-matrix:
 Charge = -1 Multiplicity = 1

 SCF Done:  E(RCAM-B3LYP) =  -702.136984817     A.U. after   16 cycles
 Total Energy, E(TD-HF/TD-DFT) =  -701.974382327
 SCF Done:  E(RCAM-B3LYP) =  -702.131855298     A.U. after   14 cycles
 Total Energy, E(TD-HF/TD-DFT) =  -701.981356969
 SCF Done:  E(RCAM-B3LYP) =  -702.129322439     A.U. after   13 cycles
 Total Energy, E(TD-HF/TD-DFT) =  -701.982049078
 SCF Done:  E(RCAM-B3LYP) =  -702.125136940     A.U. after   13 cycles
 Total Energy, E(TD-HF/TD-DFT) =  -701.981083687
 SCF Done:  E(RCAM-B3LYP) =  -702.122911059     A.U. after   14 cycles
 Total Energy, E(TD-HF/TD-DFT) =  -701.982772322
 SCF Done:  E(RCAM-B3LYP) =  -702.122071685     A.U. after   14 cycles
 Total Energy, E(TD-HF/TD-DFT) =  -701.983304466
 SCF Done:  E(RCAM-B3LYP) =  -702.125725267     A.U. after   14 cycles
 Total Energy, E(TD-HF/TD-DFT) =  -701.983906382
 SCF Done:  E(RCAM-B3LYP) =  -702.121686506     A.U. after   14 cycles
 Total Energy, E(TD-HF/TD-DFT) =  -701.983697951
 SCF Done:  E(RCAM-B3LYP) =  -702.124537823     A.U. after   12 cycles
 Total Energy, E(TD-HF/TD-DFT) =  -701.984072673
 SCF Done:  E(RCAM-B3LYP) =  -702.124605039     A.U. after   12 cycles
 Total Energy, E(TD-HF/TD-DFT) =  -701.984082851
 SCF Done:  E(RCAM-B3LYP) =  -702.124645196     A.U. after   10 cycles
 Total Energy, E(TD-HF/TD-DFT) =  -701.984084068
 Optimization completed.
    -- Stationary point found.
 Normal termination of Gaussian 16 at Thu May 20 17:32:07 2021.

 ----------------------------------------------------------------------
 #N Geom=AllCheck Guess=TCheck SCRF=Check GenChk RCAM-B3LYP TD(FC,Read)
 /6-31+G(d,p) Freq
 ----------------------------------------------------------------------

 Structure from the checkpoint file:  "K2Aexc.chk"
 ------
 K2Aexc
 ------
 Charge = -1 Multiplicity = 1

                          Input orientation:
 ---------------------------------------------------------------------
 Center     Atomic      Atomic             Coordinates (Angstroms)
 Number     Number       Type             X           Y           Z
 ---------------------------------------------------------------------
      1          6           0        0.098889    0.619394    0.000058
      2          6           0        0.125732   -0.823834    0.000071
      3          6           0        1.395603   -1.504090    0.000053
      4          6           0        2.548109   -0.717661   -0.000010
      5          6           0        2.480482    0.675953    0.000011
      6          6           0        1.233077    1.395569    0.000076
      7          6           0       -2.048986   -0.086074   -0.000063
      8          6           0       -1.189584   -1.251177    0.000123
      9          1           0        1.465580   -2.584971    0.000075
     10          1           0        1.214054    2.479112    0.000098
     11          1           0       -1.554351   -2.267901    0.000131
     12          8           0        3.775097   -1.336600    0.000005
     13          1           0        4.469892   -0.662580   -0.000039
     14          8           0        3.670799    1.332052   -0.000030
     15          1           0        3.549550    2.291581   -0.000060
     16          7           0       -1.235525    0.999936    0.000125
     17          1           0       -1.600848    1.942780    0.000248
     18          6           0       -3.509538    0.052498   -0.000196
     19          8           0       -3.961658    1.243900   -0.000170
     20          8           0       -4.194971   -1.018304   -0.000343
 ---------------------------------------------------------------------

 SCF Done:  E(RCAM-B3LYP) =  -702.124645196     A.U. after    1 cycles
 Total Energy, E(TD-HF/TD-DFT) =  -701.984084069
 SCF Done:  E(RCAM-B3LYP) =  -702.122140060     A.U. after   12 cycles
 Total Energy, E(TD-HF/TD-DFT) =  -701.981574693
 SCF Done:  E(RCAM-B3LYP) =  -702.127183123     A.U. after   12 cycles
 Total Energy, E(TD-HF/TD-DFT) =  -701.986656561
 SCF Done:  E(RCAM-B3LYP) =  -702.124006101     A.U. after   12 cycles
 Total Energy, E(TD-HF/TD-DFT) =  -701.983387363
 SCF Done:  E(RCAM-B3LYP) =  -702.125305877     A.U. after   12 cycles
 Total Energy, E(TD-HF/TD-DFT) =  -701.984805062
 SCF Done:  E(RCAM-B3LYP) =  -702.124650426     A.U. after    8 cycles
 Total Energy, E(TD-HF/TD-DFT) =  -701.984090235
 SCF Done:  E(RCAM-B3LYP) =  -702.124650790     A.U. after    9 cycles

 Excitation energies and oscillator strengths:

 Excited state symmetry could not be determined.
 Excited State   1:      Singlet-?Sym    3.8248 eV  324.16 nm  f=0.6812  <S**2>=0.000
      50 -> 51         0.69659
 This state for optimization and/or second-order correction.
 Total Energy, E(TD-HF/TD-DFT) =  -701.984090656
 Copying the excited state density for this state as the 1-particle RhoCI density.

 Excited state symmetry could not be determined.
 Excited State   2:      Singlet-?Sym    4.3930 eV  282.23 nm  f=0.1691  <S**2>=0.000
      49 -> 51         0.66755
      50 -> 59        -0.12384

 Excited state symmetry could not be determined.
 Excited State   3:      Singlet-?Sym    4.7986 eV  258.38 nm  f=0.0032  <S**2>=0.000
      50 -> 52         0.64484
      50 -> 53         0.15383
      50 -> 58        -0.13728

 Excited state symmetry could not be determined.
 Excited State   4:      Singlet-?Sym    4.8261 eV  256.90 nm  f=0.0000  <S**2>=0.000
      48 -> 51         0.60395
      48 -> 55         0.29993
      48 -> 62         0.11615

 Excited state symmetry could not be determined.
 Excited State   5:      Singlet-?Sym    5.1215 eV  242.08 nm  f=0.1888  <S**2>=0.000
      49 -> 51        -0.10552
      50 -> 53         0.21212
      50 -> 55        -0.62510
      50 -> 59        -0.10466

 Alpha  occ. eigenvalues --  -19.27153 -19.25936 -19.16928 -19.16679 -14.45077
 Alpha  occ. eigenvalues --  -10.35415 -10.33480 -10.32655 -10.30042 -10.29223
 Alpha  occ. eigenvalues --  -10.27621 -10.27065 -10.26760 -10.25163  -1.16747
 Alpha  occ. eigenvalues --   -1.13477  -1.10361  -1.06047  -1.00925  -0.92436
 Alpha  occ. eigenvalues --   -0.86273  -0.82736  -0.79446  -0.73663  -0.68715
 Alpha  occ. eigenvalues --   -0.67251  -0.63794  -0.62459  -0.60006  -0.56112
 Alpha  occ. eigenvalues --   -0.54565  -0.51760  -0.51393  -0.50561  -0.49587
 Alpha  occ. eigenvalues --   -0.49114  -0.47797  -0.46097  -0.45109  -0.44818
 Alpha  occ. eigenvalues --   -0.44639  -0.44233  -0.41460  -0.36794  -0.33708
 Alpha  occ. eigenvalues --   -0.31535  -0.31288  -0.30035  -0.26690  -0.23804
 Alpha virt. eigenvalues --   -0.00066   0.02757   0.04015   0.04723   0.05188
 Alpha virt. eigenvalues --    0.06231   0.06309   0.07530   0.07668   0.08699
 Alpha virt. eigenvalues --    0.09261   0.09382   0.09650   0.10491   0.10648

 Mulliken charges:
               1
     1  C   -0.571095
     2  C    0.874847
     3  C   -0.638230
     4  C    0.212469
     5  C    0.273750
     6  C   -0.967790
     7  C   -0.556690
     8  C    0.783156
     9  H    0.149525
    10  H    0.162915
    11  H    0.163191
    12  O   -0.603982
    13  H    0.401118
    14  O   -0.602589
    15  H    0.419295
    16  N   -0.330345
    17  H    0.342357
    18  C    1.036184
    19  O   -0.773701
    20  O   -0.774384
 Sum of Mulliken charges =  -1.00000

 Dipole moment (field-independent basis, Debye):
    X=             19.3740    Y=              5.4051    Z=              0.0988  Tot=             20.1141
 Quadrupole moment (field-independent basis, Debye-Ang):
   XX=           -175.2861   YY=            -82.0249   ZZ=            -87.4248
   XY=             13.9384   XZ=             -0.0081   YZ=             -0.0095

  Exact polarizability:     568.036      24.534     218.543      -0.801      -0.082     114.733
 Approx polarizability:     236.117      -3.944     183.782       0.021       0.018      91.017

                      1                      2                      3
                      A                      A                      A
 Frequencies --     65.3538                74.4473               119.5783
 Red. masses --     11.0618                11.7419                 9.9535
 Frc consts  --      0.0278                 0.0383                 0.0839
 IR Inten    --      7.9890                 0.9897                10.9579
 Raman Activ --      1.9507                 0.7187                 1.6568

                      4                      5                      6
                      A                      A                      A
 Frequencies --    125.4942               155.7998               197.7002
 Red. masses --      6.5741                 5.3640                 1.4189
 Frc consts  --      0.0610                 0.0767                 0.0327
 IR Inten    --      4.0110                30.0919               203.9935
 Raman Activ --     61.3455                16.2979                67.9684

                      7                      8                      9
                      A                      A                      A
 Frequencies --    230.9121               305.9381               306.0686
 Red. masses --      2.4631                 1.9652                 6.1827
 Frc consts  --      0.0774                 0.1084                 0.3412
 IR Inten    --      2.8987               106.2110                 6.3736
 Raman Activ --    193.5953                 5.5999                15.9239

                     10                     11                     12
                      A                      A                      A
 Frequencies --    311.6106               314.0081               337.3696
 Red. masses --      9.0354                 6.4912                 5.0344
 Frc consts  --      0.5169                 0.3771                 0.3376
 IR Inten    --      4.3518                 9.3896                31.9898
 Raman Activ --     37.0615                58.9709               484.3058

                     13                     14                     15
                      A                      A                      A
 Frequencies --    356.4770               427.0848               478.3416
 Red. masses --      1.8974                 6.4721                 2.9529
 Frc consts  --      0.1421                 0.6955                 0.3981
 IR Inten    --      3.4281                 3.5917                 7.7999
 Raman Activ --      2.6294               227.8414                83.3891

                     16                     17                     18
                      A                      A                      A
 Frequencies --    519.9189               543.1537               544.7457
 Red. masses --      8.0065                 6.3624                 1.3038
 Frc consts  --      1.2752                 1.1059                 0.2280
 IR Inten    --     58.3291                13.9100               247.5319
 Raman Activ --     62.5860                15.1459              1542.1862

                     19                     20                     21
                      A                      A                      A
 Frequencies --    585.7853               628.4898               650.0756
 Red. masses --      1.1939                 2.2128                 2.1581
 Frc consts  --      0.2414                 0.5150                 0.5373
 IR Inten    --     45.1243                81.4065                31.2442
 Raman Activ --    288.8098               814.0604               368.1500

                     22                     23                     24
                      A                      A                      A
 Frequencies --    655.4097               716.9928               723.6418
 Red. masses --      4.0704                 5.8333                 7.0579
 Frc consts  --      1.0302                 1.7668                 2.1776
 IR Inten    --     84.0949                23.4459               796.7931
 Raman Activ --    169.5099                97.2296               585.1578

                     25                     26                     27
                      A                      A                      A
 Frequencies --    741.8374               764.1217               786.2696
 Red. masses --      6.9724                 8.4671                 7.5099
 Frc consts  --      2.2607                 2.9128                 2.7354
 IR Inten    --     25.1514                66.3037                 7.0889
 Raman Activ --      9.2882               239.1805               976.7028

                     28                     29                     30
                      A                      A                      A
 Frequencies --    813.3258               860.9324               925.2000
 Red. masses --      1.6389                 3.2173                 3.9146
 Frc consts  --      0.6387                 1.4050                 1.9743
 IR Inten    --     38.8090               691.3473               916.0593
 Raman Activ --     20.2134               313.7031               523.7718

                     31                     32                     33
                      A                      A                      A
 Frequencies --   1105.2848              1129.2306              1149.2027
 Red. masses --      2.2593                 1.5918                 2.1411
 Frc consts  --      1.6262                 1.1959                 1.6660
 IR Inten    --    517.0072                29.9540               857.2711
 Raman Activ --    795.7010              3143.8408                66.3369

                     34                     35                     36
                      A                      A                      A
 Frequencies --   1184.8039              1193.8957              1232.0622
 Red. masses --      1.3867                 2.6287                 2.2168
 Frc consts  --      1.1469                 2.2076                 1.9826
 IR Inten    --     47.4686                65.7696              1256.1862
 Raman Activ --    169.9577               901.9945              1488.7597

                     37                     38                     39
                      A                      A                      A
 Frequencies --   1264.9332              1278.8733              1325.2301
 Red. masses --      1.9446                 4.8941                 5.3957
 Frc consts  --      1.8332                 4.7160                 5.5831
 IR Inten    --     48.2967              5938.8024                96.3614
 Raman Activ --     33.7928              5314.9211              5395.8312

                     40                     41                     42
                      A                      A                      A
 Frequencies --   1348.0711              1381.2836              1398.1672
 Red. masses --      1.7786                 5.2205                 4.2501
 Frc consts  --      1.9043                 5.8685                 4.8952
 IR Inten    --    405.5564               184.1015               147.5770
 Raman Activ --     98.6456               538.2514              6124.5691

                     43                     44                     45
                      A                      A                      A
 Frequencies --   1481.1950              1516.7537              1542.3494
 Red. masses --      7.1762                 3.5868                 4.2634
 Frc consts  --      9.2761                 4.8617                 5.9755
 IR Inten    --    246.9891               657.1833               198.7334
 Raman Activ --   1732.2593              4719.8551               258.5092

                     46                     47                     48
                      A                      A                      A
 Frequencies --   1566.8209              1610.9735              1657.4723
 Red. masses --     12.4629                 6.4624                 6.7934
 Frc consts  --     18.0264                 9.8814                10.9959
 IR Inten    --   1004.6946                51.8980               620.6106
 Raman Activ --    922.1065             18382.2594              2869.2593

                     49                     50                     51
                      A                      A                      A
 Frequencies --   3240.8223              3242.8682              3288.8046
 Red. masses --      1.0913                 1.0911                 1.0953
 Frc consts  --      6.7532                 6.7604                 6.9801
 IR Inten    --     15.5941                 6.5049                 3.1530
 Raman Activ --    508.1601               492.6202               526.4742

                     52                     53                     54
                      A                      A                      A
 Frequencies --   3652.6016              3818.5518              3841.7984
 Red. masses --      1.0800                 1.0659                 1.0667
 Frc consts  --      8.4891                 9.1572                 9.2758
 IR Inten    --    410.8251               260.8908               375.4585
 Raman Activ --    275.4187               673.1962               633.3396

 - Thermochemistry -
 -------------------
 Temperature   298.150 Kelvin.  Pressure   1.00000 Atm.
 Atom     1 has atomic number  6 and mass  12.00000

 Molecular mass:   192.02968 amu.
 Principal axes and moments of inertia in atomic units:
                           1         2         3
     Eigenvalues --   834.201735169.431786003.63349
           X            0.99993   0.01202  -0.00003
           Y           -0.01202   0.99993  -0.00001
           Z            0.00003   0.00001   1.00000
 This molecule is an asymmetric top.
 Rotational symmetry number  1.
 Warning -- assumption of classical behavior for rotation
           may cause significant error
 Rotational temperatures (Kelvin)      0.10383     0.01676     0.01443
 Rotational constants (GHZ):           2.16343     0.34912     0.30061
 Zero-point vibrational energy     357193.8 (Joules/Mol)
                                   85.37136 (Kcal/Mol)
 Warning -- explicit consideration of  19 degrees of freedom as
           vibrations may cause significant error
 Vibrational temperatures:     94.03   107.11   172.05   180.56   224.16
          (Kelvin)            284.45   332.23   440.18   440.36   448.34
                              451.79   485.40   512.89   614.48   688.23
                              748.05   781.48   783.77   842.81   904.26
                              935.31   942.99  1031.59  1041.16  1067.34
                             1099.40  1131.27  1170.19  1238.69  1331.16
                             1590.26  1624.71  1653.45  1704.67  1717.75
                             1772.66  1819.96  1840.01  1906.71  1939.57
                             1987.36  2011.65  2131.11  2182.27  2219.10
                             2254.31  2317.83  2384.73  4662.82  4665.76
                             4731.86  5255.28  5494.04  5527.49

 Zero-point correction=                           0.136048 (Hartree/Particle)
 Thermal correction to Energy=                    0.148494
 Thermal correction to Enthalpy=                  0.149438
 Thermal correction to Gibbs Free Energy=         0.097476
 Sum of electronic and zero-point Energies=           -701.848036
 Sum of electronic and thermal Energies=              -701.835590
 Sum of electronic and thermal Enthalpies=            -701.834646
 Sum of electronic and thermal Free Energies=         -701.886608

                     E (Thermal)             CV                S
                      KCal/Mol        Cal/Mol-Kelvin    Cal/Mol-Kelvin
 Total                   93.181             47.102            109.363
 Electronic               0.000              0.000              0.000
 Translational            0.889              2.981             41.663
 Rotational               0.889              2.981             31.627
 Vibrational             91.404             41.141             36.073
 Vibration     1          0.597              1.971              4.289
 Vibration     2          0.599              1.966              4.032
 Vibration     3          0.609              1.933              3.107
 Vibration     4          0.610              1.928              3.014
 Vibration     5          0.620              1.896              2.600
 Vibration     6          0.637              1.843              2.154
 Vibration     7          0.653              1.794              1.872
 Vibration     8          0.696              1.662              1.384
 Vibration     9          0.696              1.662              1.383
 Vibration    10          0.700              1.652              1.354
 Vibration    11          0.702              1.647              1.341
 Vibration    12          0.718              1.601              1.225
 Vibration    13          0.732              1.562              1.137
 Vibration    14          0.789              1.411              0.868
 Vibration    15          0.835              1.298              0.715
 Vibration    16          0.875              1.206              0.610
 Vibration    17          0.898              1.155              0.559
 Vibration    18          0.900              1.151              0.555
 Vibration    19          0.943              1.062              0.475

 Optimization completed.
    -- Stationary point found.
 Normal termination of Gaussian 16 at Thu May 20 20:34:05 2021.
