 Gaussian 09, Revision D.01,
 Gaussian 09:  EM64L-G09RevD.01 24-Apr-2013

 ----------------------------------------------------------------------
 # opt cam-b3lyp/6-31+G(d,p) freq=raman int=(superfine,acc2e=12) scrf=(
 solvent=water)
 ----------------------------------------------------------------------

 ----
 K2DA
 ----
 Symbolic Z-matrix:
 Charge = -2 Multiplicity = 1

 SCF Done:  E(RCAM-B3LYP) =  -701.642323905     A.U. after   17 cycles
 SCF Done:  E(RCAM-B3LYP) =  -701.660548209     A.U. after   15 cycles
 SCF Done:  E(RCAM-B3LYP) =  -701.663824621     A.U. after   15 cycles
 SCF Done:  E(RCAM-B3LYP) =  -701.645854753     A.U. after   17 cycles
 SCF Done:  E(RCAM-B3LYP) =  -701.663934560     A.U. after   12 cycles
 SCF Done:  E(RCAM-B3LYP) =  -701.664141102     A.U. after   14 cycles
 SCF Done:  E(RCAM-B3LYP) =  -701.664174911     A.U. after   13 cycles
 SCF Done:  E(RCAM-B3LYP) =  -701.664181456     A.U. after   13 cycles
 Optimization completed.
    -- Stationary point found.
 Normal termination of Gaussian 09 at Thu Oct 22 10:51:28 2020.

 ----------------------------------------------------------------------
 #N Geom=AllCheck Guess=TCheck SCRF=Check GenChk RCAM-B3LYP/6-31+G(d,p)
  Freq
 ----------------------------------------------------------------------

 Structure from the checkpoint file:  "K2DA.chk"
 ----
 K2DA
 ----
 Charge = -2 Multiplicity = 1

                         Standard orientation:
 ---------------------------------------------------------------------
 Center     Atomic      Atomic             Coordinates (Angstroms)
 Number     Number       Type             X           Y           Z
 ---------------------------------------------------------------------
      1          6           0       -0.135701    0.614698   -0.000053
      2          6           0       -0.169240   -0.798118    0.000089
      3          6           0       -1.431181   -1.450300    0.000177
      4          6           0       -2.556828   -0.673815    0.000108
      5          6           0       -2.542528    0.778683   -0.000042
      6          6           0       -1.296857    1.413207   -0.000114
      7          6           0        1.997488   -0.134274   -0.000083
      8          6           0        1.189925   -1.248563    0.000133
      9          1           0       -1.510094   -2.534251    0.000300
     10          1           0       -1.240517    2.498370   -0.000218
     11          1           0        1.538761   -2.271991    0.000257
     12          8           0       -3.826787   -1.196623    0.000185
     13          8           0       -3.713856    1.355257   -0.000058
     14          7           0        1.186574    0.987573   -0.000115
     15          1           0        1.559775    1.924203   -0.000250
     16          6           0        3.482152    0.020105   -0.000216
     17          8           0        3.918238    1.209039   -0.000068
     18          8           0        4.183776   -1.028896    0.000021
     19          1           0       -4.368291   -0.369290    0.000090
 ---------------------------------------------------------------------

 SCF Done:  E(RCAM-B3LYP) =  -701.664181456     A.U. after    1 cycles

 The electronic state is 1-A.
 Alpha  occ. eigenvalues --  -19.22718 -19.16066 -19.15936 -19.15061 -14.42800
 Alpha  occ. eigenvalues --  -10.34494 -10.28888 -10.28824 -10.27477 -10.26757
 Alpha  occ. eigenvalues --  -10.24320 -10.23768 -10.23721 -10.22912  -1.11885
 Alpha  occ. eigenvalues --   -1.09874  -1.04121  -1.02712  -1.00430  -0.89129
 Alpha  occ. eigenvalues --   -0.83862  -0.79150  -0.76454  -0.67796  -0.65265
 Alpha  occ. eigenvalues --   -0.64291  -0.60921  -0.56845  -0.54541  -0.52204
 Alpha  occ. eigenvalues --   -0.50055  -0.49253  -0.48604  -0.47841  -0.46647
 Alpha  occ. eigenvalues --   -0.46060  -0.44838  -0.43857  -0.43112  -0.42795
 Alpha  occ. eigenvalues --   -0.38669  -0.38184  -0.34050  -0.30828  -0.30686
 Alpha  occ. eigenvalues --   -0.30195  -0.29446  -0.29130  -0.24000  -0.20454
 Alpha virt. eigenvalues --    0.03619   0.03807   0.04642   0.05227   0.06276
 Alpha virt. eigenvalues --    0.06593   0.07139   0.08023   0.08711   0.09245
 Alpha virt. eigenvalues --    0.09522   0.10156   0.10723   0.11134   0.12045

 Mulliken charges:
               1
     1  C   -0.518023
     2  C    0.789160
     3  C   -0.368265
     4  C    0.053490
     5  C    0.274407
     6  C   -0.869164
     7  C   -0.466459
     8  C    0.516477
     9  H    0.133302
    10  H    0.121171
    11  H    0.136824
    12  O   -0.610838
    13  O   -0.912299
    14  N   -0.437857
    15  H    0.318871
    16  C    0.992466
    17  O   -0.760092
    18  O   -0.777146
    19  H    0.383972
 Sum of Mulliken charges =  -2.00000

 Dipole moment (field-independent basis, Debye):
    X=             -6.1660    Y=             -1.3448    Z=             -0.0005  Tot=              6.3110
 Quadrupole moment (field-independent basis, Debye-Ang):
   XX=           -228.6462   YY=            -99.9697   ZZ=            -88.8645
   XY=             10.6323   XZ=             -0.0007   YZ=             -0.0001

  Exact polarizability: 313.470  -7.616 198.754  -0.003  -0.008 107.443
 Approx polarizability: 241.889  -4.854 180.686  -0.002  -0.008  97.867

                      1                      2                      3
                      A                      A                      A
 Frequencies --     73.9337                77.2815               131.0409
 Red. masses --     11.7025                11.8494                10.3755
 Frc consts  --      0.0377                 0.0417                 0.1050
 IR Inten    --      3.3977                 7.9882                10.8228
 Raman Activ --      1.3490                 1.2750                 1.0877

                      4                      5                      6
                      A                      A                      A
 Frequencies --    165.0789               204.2900               312.7348
 Red. masses --      7.8612                 9.5214                 6.2445
 Frc consts  --      0.1262                 0.2341                 0.3598
 IR Inten    --      2.2753                 2.0935                27.2303
 Raman Activ --      2.0587                 0.6685                 6.4649

                      7                      8                      9
                      A                      A                      A
 Frequencies --    325.8532               330.9514               339.7033
 Red. masses --     10.4552                 5.5864                 7.2638
 Frc consts  --      0.6541                 0.3605                 0.4939
 IR Inten    --      7.4055                 4.8475                29.1990
 Raman Activ --      9.1609                 1.7118                 3.3183

                     10                     11                     12
                      A                      A                      A
 Frequencies --    373.5876               420.7660               453.4163
 Red. masses --      9.3396                 2.6675                 8.7356
 Frc consts  --      0.7680                 0.2782                 1.0581
 IR Inten    --      0.9094                 4.0941                 6.7985
 Raman Activ --      0.6675                 8.0039                22.0584

                     13                     14                     15
                      A                      A                      A
 Frequencies --    480.6460               542.5791               550.0852
 Red. masses --      1.2408                 7.6136                 6.4955
 Frc consts  --      0.1689                 1.3206                 1.1580
 IR Inten    --    127.0356               133.2921                 6.2683
 Raman Activ --      1.0543                 4.4706                 5.4827

                     16                     17                     18
                      A                      A                      A
 Frequencies --    624.5976               676.5213               707.3780
 Red. masses --      3.2673                 4.5757                 4.3233
 Frc consts  --      0.7510                 1.2339                 1.2746
 IR Inten    --     13.8651                43.0168                 1.2191
 Raman Activ --      6.3187                16.1595                 4.3946

                     19                     20                     21
                      A                      A                      A
 Frequencies --    721.6548               732.8396               752.6952
 Red. masses --      2.9771                 1.2379                 8.0780
 Frc consts  --      0.9135                 0.3917                 2.6964
 IR Inten    --     64.0770                61.8660                22.0752
 Raman Activ --      1.2076                 0.1850                52.6817

                     22                     23                     24
                      A                      A                      A
 Frequencies --    785.1683               790.3293               801.1114
 Red. masses --      2.7313                 7.3969                 1.5757
 Frc consts  --      0.9921                 2.7222                 0.5958
 IR Inten    --    103.6072                 5.8644                67.1313
 Raman Activ --      2.1014                 9.6078                22.1739

                     25                     26                     27
                      A                      A                      A
 Frequencies --    808.3222               838.6057               871.5902
 Red. masses --      7.4952                 2.1963                 1.4778
 Frc consts  --      2.8854                 0.9101                 0.6615
 IR Inten    --     18.0688                 0.3630                80.8592
 Raman Activ --     55.4435                10.2387                 6.5240

                     28                     29                     30
                      A                      A                      A
 Frequencies --    890.8854              1005.7157              1109.1647
 Red. masses --      2.3244                 7.2949                 1.4404
 Frc consts  --      1.0870                 4.3473                 1.0441
 IR Inten    --     49.2635                11.7742               184.8762
 Raman Activ --     13.0040               162.4796               199.3832

                     31                     32                     33
                      A                      A                      A
 Frequencies --   1165.3521              1202.9024              1222.0638
 Red. masses --      2.4890                 1.6820                 1.7543
 Frc consts  --      1.9916                 1.4340                 1.5436
 IR Inten    --    163.3879               211.4162               170.4781
 Raman Activ --     11.6391                 7.4179                20.1588

                     34                     35                     36
                      A                      A                      A
 Frequencies --   1240.0603              1282.0397              1299.9767
 Red. masses --      2.4204                 2.9118                 5.6404
 Frc consts  --      2.1929                 2.8198                 5.6161
 IR Inten    --     59.8674                67.8948               454.3513
 Raman Activ --     10.2222                40.9202               152.1502

                     37                     38                     39
                      A                      A                      A
 Frequencies --   1330.1259              1417.5216              1435.7290
 Red. masses --      3.1560                 5.2259                 5.5952
 Frc consts  --      3.2898                 6.1869                 6.7953
 IR Inten    --   1895.0564               114.0137               252.0047
 Raman Activ --   1864.8990                81.9939              1787.8019

                     40                     41                     42
                      A                      A                      A
 Frequencies --   1450.3150              1528.7932              1564.0947
 Red. masses --      3.1015                 6.0620                 4.6148
 Frc consts  --      3.8436                 8.3477                 6.6516
 IR Inten    --    285.6548               697.6976                33.0315
 Raman Activ --    660.2341               110.1798               509.3067

                     43                     44                     45
                      A                      A                      A
 Frequencies --   1574.8285              1611.2735              1638.3736
 Red. masses --      8.7600                11.8479                 5.8504
 Frc consts  --     12.8003                18.1231                 9.2525
 IR Inten    --    479.6100              1005.5809               127.6340
 Raman Activ --   2192.1863                30.9703               881.1554

                     46                     47                     48
                      A                      A                      A
 Frequencies --   1704.3278              3195.1487              3198.7167
 Red. masses --      7.3773                 1.0911                 1.0915
 Frc consts  --     12.6257                 6.5626                 6.5798
 IR Inten    --     98.2280                50.6783                20.5349
 Raman Activ --    233.9449               135.6109               464.4594

                     49                     50                     51
                      A                      A                      A
 Frequencies --   3269.4822              3433.0808              3689.0699
 Red. masses --      1.0960                 1.0636                 1.0803
 Frc consts  --      6.9024                 7.3859                 8.6618
 IR Inten    --     11.3311               402.8069               163.9751
 Raman Activ --    239.2884               111.9706               194.9910

 - Thermochemistry -
 -------------------
 Temperature   298.150 Kelvin.  Pressure   1.00000 Atm.
 Atom     1 has atomic number  6 and mass  12.00000

 Molecular mass:   191.02186 amu.
 Principal axes and moments of inertia in atomic units:
                           1         2         3
     Eigenvalues --   789.627725141.128985930.75670
           X            1.00000   0.00151   0.00002
           Y           -0.00151   1.00000   0.00009
           Z           -0.00002  -0.00009   1.00000
 This molecule is an asymmetric top.
 Rotational symmetry number  1.
 Warning -- assumption of classical behavior for rotation
           may cause significant error
 Rotational temperatures (Kelvin)      0.10969     0.01685     0.01460
 Rotational constants (GHZ):           2.28556     0.35104     0.30430
 Zero-point vibrational energy     337058.6 (Joules/Mol)
                                   80.55895 (Kcal/Mol)
 Warning -- explicit consideration of  15 degrees of freedom as
           vibrations may cause significant error
 Vibrational temperatures:    106.37   111.19   188.54   237.51   293.93
          (Kelvin)            449.96   468.83   476.16   488.76   537.51
                              605.39   652.36   691.54   780.65   791.45
                              898.66   973.36  1017.76  1038.30  1054.39
                             1082.96  1129.68  1137.11  1152.62  1162.99
                             1206.57  1254.02  1281.78  1447.00  1595.84
                             1676.68  1730.71  1758.27  1784.17  1844.57
                             1870.37  1913.75  2039.49  2065.69  2086.68
                             2199.59  2250.38  2265.82  2318.26  2357.25
                             2452.14  4597.10  4602.23  4704.05  4939.43
                             5307.74

 Zero-point correction=                           0.128379 (Hartree/Particle)
 Thermal correction to Energy=                    0.139060
 Thermal correction to Enthalpy=                  0.140004
 Thermal correction to Gibbs Free Energy=         0.091530
 Sum of electronic and zero-point Energies=           -701.535803
 Sum of electronic and thermal Energies=              -701.525122
 Sum of electronic and thermal Enthalpies=            -701.524178
 Sum of electronic and thermal Free Energies=         -701.572652

                     E (Thermal)             CV                S
                      KCal/Mol        Cal/Mol-Kelvin    Cal/Mol-Kelvin
 Total                   87.261             41.623            102.022
 Electronic               0.000              0.000              0.000
 Translational            0.889              2.981             41.647
 Rotational               0.889              2.981             31.554
 Vibrational             85.484             35.661             28.820
 Vibration     1          0.599              1.966              4.046
 Vibration     2          0.599              1.964              3.959
 Vibration     3          0.612              1.922              2.931
 Vibration     4          0.623              1.885              2.491
 Vibration     5          0.640              1.834              2.094
 Vibration     6          0.701              1.649              1.348
 Vibration     7          0.710              1.624              1.281
 Vibration     8          0.713              1.614              1.255
 Vibration     9          0.720              1.596              1.214
 Vibration    10          0.745              1.526              1.065
 Vibration    11          0.783              1.425              0.889
 Vibration    12          0.812              1.353              0.786
 Vibration    13          0.837              1.293              0.708
 Vibration    14          0.898              1.156              0.560
 Vibration    15          0.905              1.139              0.544

 Optimization completed.
    -- Stationary point found.
 Normal termination of Gaussian 09 at Thu Oct 22 11:10:06 2020.
