 Gaussian 16, Revision C.01,
 Gaussian 16:  ES64L-G16RevC.01  3-Jul-2019

 ----------------------------------------------------------------------
 # td(nstates=5,root=2) opt=tight cam-b3lyp/6-31+G(d,p) freq=raman int=
 (ultrafine,acc2e=12) scrf=(solvent=water) geom=check guess=read maxdis
 k=1TB
 ----------------------------------------------------------------------

 -------
 K2DAexc
 -------
 Structure from the checkpoint file:  "K2DAexc.chk"
 Charge = -2 Multiplicity = 1

 SCF Done:  E(RCAM-B3LYP) =  -701.664183869     A.U. after    6 cycles
 Total Energy, E(TD-HF/TD-DFT) =  -701.514475357
 SCF Done:  E(RCAM-B3LYP) =  -701.658709146     A.U. after   15 cycles
 Total Energy, E(TD-HF/TD-DFT) =  -701.520520801
 SCF Done:  E(RCAM-B3LYP) =  -701.657435300     A.U. after   13 cycles
 Total Energy, E(TD-HF/TD-DFT) =  -701.520995270
 SCF Done:  E(RCAM-B3LYP) =  -701.636397743     A.U. after   16 cycles
 Total Energy, E(TD-HF/TD-DFT) =  -701.513538576
 SCF Done:  E(RCAM-B3LYP) =  -701.651644640     A.U. after   15 cycles
 Total Energy, E(TD-HF/TD-DFT) =  -701.522176384
 SCF Done:  E(RCAM-B3LYP) =  -701.652808457     A.U. after   15 cycles
 Total Energy, E(TD-HF/TD-DFT) =  -701.524084461
 SCF Done:  E(RCAM-B3LYP) =  -701.653455573     A.U. after   16 cycles
 Total Energy, E(TD-HF/TD-DFT) =  -701.528515612
 SCF Done:  E(RCAM-B3LYP) =  -701.648597527     A.U. after   15 cycles
 Total Energy, E(TD-HF/TD-DFT) =  -701.528809058
 SCF Done:  E(RCAM-B3LYP) =  -701.653872923     A.U. after   15 cycles
 Total Energy, E(TD-HF/TD-DFT) =  -701.529549076
 SCF Done:  E(RCAM-B3LYP) =  -701.654083172     A.U. after   15 cycles
 Total Energy, E(TD-HF/TD-DFT) =  -701.529616044
 Total Energy, E(TD-HF/TD-DFT) =  -701.529634100
 Total Energy, E(TD-HF/TD-DFT) =  -701.529641694
 Total Energy, E(TD-HF/TD-DFT) =  -701.529649388
 Total Energy, E(TD-HF/TD-DFT) =  -701.529653424
 Total Energy, E(TD-HF/TD-DFT) =  -701.529659476
 Total Energy, E(TD-HF/TD-DFT) =  -701.529664774
 Total Energy, E(TD-HF/TD-DFT) =  -701.529669225
 Total Energy, E(TD-HF/TD-DFT) =  -701.529671701
 Total Energy, E(TD-HF/TD-DFT) =  -701.529673662
 Total Energy, E(TD-HF/TD-DFT) =  -701.529674655
 Total Energy, E(TD-HF/TD-DFT) =  -701.529675626
 Total Energy, E(TD-HF/TD-DFT) =  -701.529676100
 Total Energy, E(TD-HF/TD-DFT) =  -701.529674569
 Total Energy, E(TD-HF/TD-DFT) =  -701.529676518
 Total Energy, E(TD-HF/TD-DFT) =  -701.529676676
 Total Energy, E(TD-HF/TD-DFT) =  -701.529676692
 Total Energy, E(TD-HF/TD-DFT) =  -701.529674685
 Total Energy, E(TD-HF/TD-DFT) =  -701.529676677
 Total Energy, E(TD-HF/TD-DFT) =  -701.529676698
 SCF Done:  E(RCAM-B3LYP) =  -701.654417684     A.U. after    9 cycles
 Total Energy, E(TD-HF/TD-DFT) =  -701.529676699
 SCF Done:  E(RCAM-B3LYP) =  -701.654416796     A.U. after   10 cycles
 Total Energy, E(TD-HF/TD-DFT) =  -701.529676652
 SCF Done:  E(RCAM-B3LYP) =  -701.654414381     A.U. after   10 cycles
 Total Energy, E(TD-HF/TD-DFT) =  -701.529676706
 Optimization completed.
    -- Stationary point found.
 Normal termination of Gaussian 16 at Thu Oct 29 20:29:35 2020.

 ----------------------------------------------------------------------
 #N Geom=AllCheck Guess=TCheck SCRF=Check GenChk RCAM-B3LYP TD(FC,Read)
 /6-31+G(d,p) Freq
 ----------------------------------------------------------------------

 Structure from the checkpoint file:  "K2DAexc.chk"
 -------
 K2DAexc
 -------
 Charge = -2 Multiplicity = 1

                         Standard orientation:
 ---------------------------------------------------------------------
 Center     Atomic      Atomic             Coordinates (Angstroms)
 Number     Number       Type             X           Y           Z
 ---------------------------------------------------------------------
      1          6           0       -0.128874    0.641162   -0.000008
      2          6           0       -0.175358   -0.813265   -0.000007
      3          6           0       -1.452280   -1.467570   -0.000031
      4          6           0       -2.586069   -0.662288    0.000023
      5          6           0       -2.547071    0.766159    0.000018
      6          6           0       -1.251206    1.431188   -0.000005
      7          6           0        2.011683   -0.124710   -0.000002
      8          6           0        1.146911   -1.261501    0.000009
      9          1           0       -1.535361   -2.548981   -0.000010
     10          1           0       -1.214767    2.515293    0.000004
     11          1           0        1.485364   -2.287738    0.000006
     12          8           0       -3.843836   -1.213787    0.000003
     13          8           0       -3.655397    1.419560   -0.000008
     14          7           0        1.202389    0.996344    0.000005
     15          1           0        1.581604    1.930847   -0.000022
     16          6           0        3.460876    0.007004    0.000000
     17          8           0        3.936411    1.200776   -0.000001
     18          8           0        4.167046   -1.061919    0.000005
     19          1           0       -4.439016   -0.437950    0.000011
 ---------------------------------------------------------------------

 SCF Done:  E(RCAM-B3LYP) =  -701.654414381     A.U. after    1 cycles
 Total Energy, E(TD-HF/TD-DFT) =  -701.529676704
 SCF Done:  E(RCAM-B3LYP) =  -701.655458704     A.U. after   12 cycles
 Total Energy, E(TD-HF/TD-DFT) =  -701.531216147
 SCF Done:  E(RCAM-B3LYP) =  -701.653410281     A.U. after   12 cycles
 Total Energy, E(TD-HF/TD-DFT) =  -701.528207971
 SCF Done:  E(RCAM-B3LYP) =  -701.654621450     A.U. after   13 cycles
 Total Energy, E(TD-HF/TD-DFT) =  -701.529693489
 SCF Done:  E(RCAM-B3LYP) =  -701.654229998     A.U. after   13 cycles
 Total Energy, E(TD-HF/TD-DFT) =  -701.529685857
 SCF Done:  E(RCAM-B3LYP) =  -701.654420425     A.U. after    9 cycles
 Total Energy, E(TD-HF/TD-DFT) =  -701.529684927
 SCF Done:  E(RCAM-B3LYP) =  -701.654420429     A.U. after    9 cycles

 Excitation energies and oscillator strengths:

 Excited state symmetry could not be determined.
 Excited State   1:      Singlet-?Sym    3.8538 eV  321.72 nm  f=0.0040  <S**2>=0.000
      50 -> 52        -0.65305
      50 -> 53        -0.13206
      50 -> 58        -0.12550

 Excited state symmetry could not be determined.
 Excited State   2:      Singlet-?Sym    3.3942 eV  365.28 nm  f=0.8708  <S**2>=0.000
      50 -> 51        -0.69341
 This state for optimization and/or second-order correction.
 Total Energy, E(TD-HF/TD-DFT) =  -701.529685015
 Copying the excited state density for this state as the 1-particle RhoCI density.

 Excited state symmetry could not be determined.
 Excited State   3:      Singlet-?Sym    4.2973 eV  288.52 nm  f=0.0069  <S**2>=0.000
      49 -> 52        -0.12254
      50 -> 52        -0.11995
      50 -> 53         0.63244
      50 -> 56         0.18562

 Excited state symmetry could not be determined.
 Excited State   4:      Singlet-?Sym    4.3554 eV  284.67 nm  f=0.0246  <S**2>=0.000
      49 -> 51        -0.39381
      50 -> 55        -0.51034
      50 -> 59        -0.20839
      50 -> 63         0.10014

 Excited state symmetry could not be determined.
 Excited State   5:      Singlet-?Sym    4.5537 eV  272.27 nm  f=0.2323  <S**2>=0.000
      49 -> 51        -0.53946
      49 -> 55         0.10651
      50 -> 55         0.40520

 Alpha  occ. eigenvalues --  -19.23363 -19.15936 -19.15727 -19.15027 -14.42948
 Alpha  occ. eigenvalues --  -10.34374 -10.29339 -10.29190 -10.27798 -10.26977
 Alpha  occ. eigenvalues --  -10.24993 -10.24221 -10.24163 -10.22937  -1.12294
 Alpha  occ. eigenvalues --   -1.08859  -1.03916  -1.03475  -0.99392  -0.88826
 Alpha  occ. eigenvalues --   -0.83786  -0.79491  -0.75908  -0.68615  -0.65473
 Alpha  occ. eigenvalues --   -0.64604  -0.60813  -0.57373  -0.54406  -0.52218
 Alpha  occ. eigenvalues --   -0.49872  -0.49089  -0.48879  -0.47707  -0.46656
 Alpha  occ. eigenvalues --   -0.46121  -0.44287  -0.43453  -0.43193  -0.42518
 Alpha  occ. eigenvalues --   -0.38971  -0.38853  -0.34223  -0.30738  -0.30475
 Alpha  occ. eigenvalues --   -0.30140  -0.29107  -0.28765  -0.24271  -0.19533
 Alpha virt. eigenvalues --    0.02274   0.03760   0.04574   0.05209   0.06150
 Alpha virt. eigenvalues --    0.06578   0.07115   0.08031   0.08722   0.09212
 Alpha virt. eigenvalues --    0.09518   0.10170   0.10531   0.11098   0.12214

 Mulliken charges:
               1
     1  C   -0.425827
     2  C    0.778321
     3  C   -0.475516
     4  C    0.113816
     5  C    0.296070
     6  C   -0.976182
     7  C   -0.658277
     8  C    0.613800
     9  H    0.131195
    10  H    0.137284
    11  H    0.136052
    12  O   -0.596387
    13  O   -0.791325
    14  N   -0.400017
    15  H    0.324377
    16  C    1.044882
    17  O   -0.813308
    18  O   -0.822899
    19  H    0.383941
 Sum of Mulliken charges =  -2.00000

 Dipole moment (field-independent basis, Debye):
    X=            -11.4666    Y=             -0.0298    Z=              0.1264  Tot=             11.4673
 Quadrupole moment (field-independent basis, Debye-Ang):
   XX=           -229.3318   YY=           -102.5023   ZZ=            -90.0967
   XY=              8.2705   XZ=             -0.0377   YZ=              0.0257

  Exact polarizability:     636.816     -40.777     233.573       4.799      -1.645     148.960
 Approx polarizability:     273.796      -4.445     185.908      -0.035       0.016      98.755

                      1                      2                      3
                      A                      A                      A
 Frequencies --     53.1377                73.2701                86.8324
 Red. masses --     10.7477                10.6440                11.9321
 Frc consts  --      0.0179                 0.0337                 0.0530
 IR Inten    --     78.3218               147.6348                 3.6577
 Raman Activ --  20432.8255             15879.2824               861.9565

                      4                      5                      6
                      A                      A                      A
 Frequencies --    117.3115               139.5790               159.7663
 Red. masses --     10.5293                 7.3470                 7.1176
 Frc consts  --      0.0854                 0.0843                 0.1070
 IR Inten    --     11.7254                 1.4656                 0.2456
 Raman Activ --      5.8934               236.2881               150.8746

                      7                      8                      9
                      A                      A                      A
 Frequencies --    246.9623               300.1165               305.9827
 Red. masses --      5.9496                 5.6031                 8.3879
 Frc consts  --      0.2138                 0.2973                 0.4627
 IR Inten    --      0.1624                37.6526                11.5959
 Raman Activ --   2312.4441                78.6984               488.5176

                     10                     11                     12
                      A                      A                      A
 Frequencies --    318.1450               325.2361               415.4540
 Red. masses --     11.1878                 8.9322                 1.7202
 Frc consts  --      0.6672                 0.5567                 0.1749
 IR Inten    --     22.8973                 2.3260                 5.1532
 Raman Activ --     36.0159                31.0158               311.6043

                     13                     14                     15
                      A                      A                      A
 Frequencies --    432.6871               506.8358               526.0982
 Red. masses --      8.3503                 1.2476                 8.1977
 Frc consts  --      0.9211                 0.1888                 1.3368
 IR Inten    --     14.0589               359.4216                 6.9712
 Raman Activ --     45.2224              4007.4108               205.4324

                     16                     17                     18
                      A                      A                      A
 Frequencies --    548.3584               579.3907               589.2503
 Red. masses --      6.3273                 1.2590                 1.3407
 Frc consts  --      1.1210                 0.2490                 0.2743
 IR Inten    --      0.9078               166.5313                 0.9377
 Raman Activ --    201.4739              6157.5700              6081.1064

                     19                     20                     21
                      A                      A                      A
 Frequencies --    630.0096               674.2645               687.8010
 Red. masses --      3.3523                 4.2708                 1.5533
 Frc consts  --      0.7839                 1.1440                 0.4330
 IR Inten    --      4.2955                50.4820                55.8711
 Raman Activ --   1727.3447               148.3382              6499.2541

                     22                     23                     24
                      A                      A                      A
 Frequencies --    711.9614               716.1360               735.7864
 Red. masses --      2.1978                 6.9361                 5.5171
 Frc consts  --      0.6564                 2.0958                 1.7598
 IR Inten    --    188.5102              1112.4160                 3.6412
 Raman Activ --   3408.2280               627.2119              1299.4566

                     25                     26                     27
                      A                      A                      A
 Frequencies --    754.6722               762.7490               785.4235
 Red. masses --      2.8757                 8.4716                 7.2765
 Frc consts  --      0.9650                 2.9039                 2.6447
 IR Inten    --     22.7168                18.0178                77.4952
 Raman Activ --     12.9541               882.3463               583.2385

                     28                     29                     30
                      A                      A                      A
 Frequencies --    868.6076               926.7557              1112.2022
 Red. masses --      2.4890                 5.6028                 1.6121
 Frc consts  --      1.1064                 2.8352                 1.1749
 IR Inten    --     87.9744              1391.0248               164.0976
 Raman Activ --     71.6696              3295.9195              1605.6654

                     31                     32                     33
                      A                      A                      A
 Frequencies --   1149.2687              1170.5436              1205.8568
 Red. masses --      2.8980                 1.6564                 1.6759
 Frc consts  --      2.2552                 1.3372                 1.4358
 IR Inten    --     57.1005                95.3603               105.5656
 Raman Activ --   2856.8511              1276.7033              1527.3398

                     34                     35                     36
                      A                      A                      A
 Frequencies --   1216.0351              1223.2010              1261.8954
 Red. masses --      2.7844                 7.2838                 2.7861
 Frc consts  --      2.4259                 6.4211                 2.6140
 IR Inten    --    430.2303              5993.9365              1349.3240
 Raman Activ --   3000.1068              8119.6785              1003.8165

                     37                     38                     39
                      A                      A                      A
 Frequencies --   1305.2489              1354.8360              1405.1876
 Red. masses --      2.2119                 7.5853                 6.1999
 Frc consts  --      2.2203                 8.2035                 7.2128
 IR Inten    --   2994.6524               243.3249               168.0274
 Raman Activ --   4173.6872              9695.6604             38228.7231

                     40                     41                     42
                      A                      A                      A
 Frequencies --   1433.5759              1463.3292              1509.2384
 Red. masses --      2.3813                 6.5269                 6.5844
 Frc consts  --      2.8834                 8.2346                 8.8365
 IR Inten    --    518.7597               346.1334              1597.1057
 Raman Activ --    803.8672              5252.4884              4713.7975

                     43                     44                     45
                      A                      A                      A
 Frequencies --   1519.1508              1544.3975              1579.0724
 Red. masses --     11.6020                 5.6109                 6.0932
 Frc consts  --     15.7755                 7.8849                 8.9516
 IR Inten    --    618.3675                62.6724                28.8639
 Raman Activ --     96.0445               933.3594             18994.5296

                     46                     47                     48
                      A                      A                      A
 Frequencies --   1651.7660              3220.9871              3224.0905
 Red. masses --      6.8144                 1.0900                 1.0912
 Frc consts  --     10.9541                 6.6627                 6.6829
 IR Inten    --    251.5518                44.3189                25.5893
 Raman Activ --    954.9306               512.5897               383.7405

                     49                     50                     51
                      A                      A                      A
 Frequencies --   3271.6467              3635.4985              3683.1799
 Red. masses --      1.0944                 1.0641                 1.0796
 Frc consts  --      6.9015                 8.2863                 8.6286
 IR Inten    --     21.4021               217.7342               337.1165
 Raman Activ --    387.1169               306.7007               639.7571

 - Thermochemistry -
 -------------------
 Temperature   298.150 Kelvin.  Pressure   1.00000 Atm.
 Atom     1 has atomic number  6 and mass  12.00000

 Molecular mass:   191.02186 amu.
 Principal axes and moments of inertia in atomic units:
                           1         2         3
     Eigenvalues --   813.576395124.875405938.45178
           X            1.00000   0.00203  -0.00000
           Y           -0.00203   1.00000  -0.00000
           Z            0.00000   0.00000   1.00000
 This molecule is an asymmetric top.
 Rotational symmetry number  1.
 Warning -- assumption of classical behavior for rotation
           may cause significant error
 Rotational temperatures (Kelvin)      0.10646     0.01690     0.01459
 Rotational constants (GHZ):           2.21828     0.35215     0.30391
 Zero-point vibrational energy     323702.2 (Joules/Mol)
                                   77.36669 (Kcal/Mol)
 Warning -- explicit consideration of  18 degrees of freedom as
           vibrations may cause significant error
 Vibrational temperatures:     76.45   105.42   124.93   168.79   200.82
          (Kelvin)            229.87   355.32   431.80   440.24   457.74
                              467.94   597.75   622.54   729.22   756.94
                              788.97   833.61   847.80   906.44   970.12
                              989.59  1024.35  1030.36  1058.63  1085.80
                             1097.43  1130.05  1249.73  1333.39  1600.21
                             1653.54  1684.15  1734.96  1749.60  1759.91
                             1815.59  1877.96  1949.31  2021.75  2062.60
                             2105.40  2171.46  2185.72  2222.04  2271.93
                             2376.52  4634.28  4638.75  4707.17  5230.67
                             5299.27

 Zero-point correction=                           0.123292 (Hartree/Particle)
 Thermal correction to Energy=                    0.135383
 Thermal correction to Enthalpy=                  0.136327
 Thermal correction to Gibbs Free Energy=         0.084432
 Sum of electronic and zero-point Energies=           -701.406385
 Sum of electronic and thermal Energies=              -701.394294
 Sum of electronic and thermal Enthalpies=            -701.393349
 Sum of electronic and thermal Free Energies=         -701.445245

                     E (Thermal)             CV                S
                      KCal/Mol        Cal/Mol-Kelvin    Cal/Mol-Kelvin
 Total                   84.954             45.050            109.223
 Electronic               0.000              0.000              0.000
 Translational            0.889              2.981             41.647
 Rotational               0.889              2.981             31.582
 Vibrational             83.177             39.089             35.994
 Vibration     1          0.596              1.976              4.697
 Vibration     2          0.599              1.967              4.064
 Vibration     3          0.601              1.958              3.730
 Vibration     4          0.608              1.935              3.144
 Vibration     5          0.615              1.914              2.810
 Vibration     6          0.622              1.892              2.553
 Vibration     7          0.661              1.768              1.752
 Vibration     8          0.693              1.673              1.416
 Vibration     9          0.696              1.662              1.384
 Vibration    10          0.705              1.639              1.320
 Vibration    11          0.709              1.625              1.284
 Vibration    12          0.779              1.437              0.908
 Vibration    13          0.794              1.399              0.850
 Vibration    14          0.862              1.235              0.641
 Vibration    15          0.881              1.192              0.596
 Vibration    16          0.904              1.143              0.548
 Vibration    17          0.936              1.076              0.486
 Vibration    18          0.947              1.055              0.469

 Optimization completed.
    -- Stationary point found.
 Normal termination of Gaussian 16 at Thu Oct 29 23:21:14 2020.
